<VTKFile type="PolyData" version="0.1" byte_order="LittleEndian">
<PolyData>
<Piece NumberOfPoints="1877" NumberOfVerts="0" NumberOfLines="5625" NumberOfStrips="0" NumberOfPolys="3750">
<Points>
<DataArray type="Float32" Name="vertex_coordinates" NumberOfComponents="3" format="ascii">
-9.25691 -9.89058 0.445469
6.82946 5.76614 3.28144
-6.16609 5.27961 4.36441
3.36419 0.652644 0.89591
5.99241 -2.17839 0.0382623
6.34106 7.22024 -3.22938
-16.6866 -5.14978 1.93789
12.2388 -2.20887 -3.70209
8.5079 3.39686 -0.731842
-18.0828 -2.98769 6.06182
2.21567 20.4239 7.15152
-8.86965 -4.38898 -1.44318
-5.46235 -9.03885 2.2062
6.49955 -11.4818 -11.6854
0.364983 8.66174 -8.52772
-0.697104 -9.61803 -12.2064
-13.9013 -12.0785 3.22859
8.35666 10.1303 10.6885
-2.69863 9.27222 4.2976
-2.35743 3.4928 -5.81596
-2.66911 15.8318 3.6175
7.51767 11.6555 11.8162
-0.404195 -9.86423 -10.915
-11.4773 3.78806 -0.29893
6.66886 6.04417 8.02916
6.10696 5.09694 4.68746
-3.83464 -7.11274 1.87883
-11.3702 5.59824 6.10942
10.3679 9.36066 3.75008
-2.4379 12.1757 10.145
-16.0066 -10.5807 3.21921
-18.025 -8.42354 7.07661
9.56785 8.06224 6.14986
-16.7747 -8.45173 2.26444
-14.8829 -9.26323 10.4033
13.2751 -3.07972 -14.2682
9.20948 10.3088 9.40227
-4.26081 12.5633 7.16453
-10.1332 -13.2925 6.86999
-7.89857 2.43042 12.5584
-2.13335 2.36422 -2.70717
-17.1258 -2.80093 10.1813
2.89129 4.15909 -0.134442
-3.24439 0.243893 11.9652
-17.6108 -7.43487 8.86775
0.961377 6.00811 -12.6508
10.8218 7.27593 -8.09565
8.18032 -2.57735 -0.947787
1.56007 17.1578 1.58473
-1.91257 16.3076 9.2412
-4.46678 2.54468 9.81114
7.06651 -11.5361 -13.1188
-5.31741 -3.95672 13.7996
9.22187 -4.1566 -2.30924
9.06704 -8.5617 -6.12051
3.83404 9.09946 -7.91784
-2.24376 -4.59183 -10.8051
-15.9886 1.65645 5.95152
-14.0414 -11.4099 10.1576
7.12079 10.9305 0.192176
-2.72957 -4.26569 -6.31296
-9.83111 3.1652 10.8406
-2.23188 0.151144 -1.7407
-17.3216 -9.28962 6.76792
-4.15726 4.47667 2.88557
0.6023 11.5962 0.427153
10.6067 6.38686 -4.57543
1.01966 8.88966 -6.12298
-15.793 -11.3754 8.1618
12.4795 -7.48282 -11.427
-7.18074 -12.3942 6.59768
12.5075 3.55275 -12.9975
4.5253 -11.4538 -10.4202
4.60574 -9.75544 -6.00285
-10.0507 2.41566 11.7627
-16.0453 -7.06941 0.955991
-9.69863 -13.2542 8.10457
8.60629 9.34205 -8.99074
-9.14724 -3.17647 14.5733
6.82701 0.500372 0.748921
-8.22503 -2.57539 14.7181
-2.67995 -4.30539 7.27652
-5.26831 2.39185 12.1007
4.09855 -11.8878 -14.0748
-12.7081 -13.8552 5.67032
10.114 10.507 3.39156
11.1458 3.61206 -15.0937
8.70427 -4.5739 -17.5507
-4.31991 11.3603 7.438
0.381121 9.23916 1.51267
-11.0199 4.61557 9.4351
-16.1195 -0.539416 1.76794
-11.6387 -4.23948 14.0087
-12.2819 -13.4582 4.52868
-12.9829 -9.21133 11.4762
-7.64739 -0.310297 -1.29327
-2.2278 -3.71522 8.11673
3.59173 -0.556795 0.423903
8.8403 -2.37584 -18.2306
4.26256 12.08 12.7148
13.8444 -2.15656 -13.2405
-3.51192 11.8924 3.59987
-1.2001 -2.10044 -1.60837
-4.83897 -9.79652 4.92175
-14.9219 3.81097 7.1313
-1.33489 6.49097 -4.38664
-0.620607 5.90736 -11.1677
4.69903 7.14837 1.06605
-8.04837 -12.8367 7.0917
-2.50416 4.42341 -6.23696
2.78646 20.3427 9.25799
-8.59662 5.62504 4.56361
-6.85433 -1.52283 -1.02418
10.3326 14.4629 7.10924
-15.1169 -0.0554855 -0.205201
2.08933 14.8964 0.265561
-1.5381 8.12507 4.67261
-17.1071 -6.0686 2.76041
-0.834769 7.86126 -8.41467
-7.05971 1.43897 -0.994465
-5.14095 -1.70369 12.9371
11.1132 12.2477 5.62209
-3.17048 14.9119 3.93909
-10.8199 3.27405 10.5002
9.84852 12.5559 2.69894
2.31713 0.113164 0.71165
-11.0511 -8.51573 12.986
-14.9567 -11.3265 9.08206
-7.61206 -12.6031 9.42708
-2.99999 -0.147408 -6.38644
-5.56559 -4.96663 13.5492
-14.2959 -2.26094 12.1627
4.88922 -7.26476 -17.9137
-0.385184 2.10175 -0.100588
-15.0005 -12.171 3.96892
3.83016 13.493 13.1973
13.4491 -2.93594 -5.16647
-13.0736 -11.3842 10.7556
-13.511 -3.22239 -0.905452
1.08807 -9.56882 -14.7481
5.45297 5.00631 1.65953
3.67538 3.73151 0.433781
6.73345 18.6302 8.39731
-6.63572 4.16132 9.4502
5.35873 -4.73504 -0.787261
7.32878 18.2008 9.68232
6.81804 18.8609 7.41516
6.74046 9.37241 0.527537
4.00189 -9.36812 -5.19748
0.0555023 8.04328 -9.80457
0.831366 8.92882 11.2293
10.903 11.2493 6.48016
7.29444 16.6515 2.1061
1.07515 6.74551 9.52429
-14.1719 4.09169 6.2884
3.48496 8.53666 11.5712
13.44 3.82898 -9.87628
-2.45957 -0.382976 -5.11204
-1.21546 9.33518 10.4677
13.0677 -1.61841 -14.2759
3.46333 19.9614 4.58466
-4.62464 -7.8032 10.1348
8.26696 13.5372 10.8778
13.9882 -4.62458 -10.6711
-11.2586 -4.49144 -1.81736
11.9347 6.50203 -7.99331
-0.398195 7.56914 9.53561
2.17594 13.5727 0.00135166
-13.7883 -13.0641 4.31616
3.51781 -4.23662 -1.28696
13.5092 -4.90866 -11.5339
-1.38888 -2.61255 5.22927
9.54437 8.8067 -8.7632
-1.81224 -3.36419 7.23155
-1.6453 -1.91722 9.42113
-18.0272 -6.68511 8.18847
14.8531 -1.00124 -11.7573
6.26294 5.35787 2.5343
8.88423 4.03295 -16.0299
-4.42277 11.5137 6.39341
4.28977 -5.1826 -1.68314
-3.17115 15.131 4.99787
12.1813 5.93813 -8.82902
0.196971 7.13743 4.52442
12.2283 5.14991 -11.384
-5.27503 3.32046 0.93323
-4.03515 14.6415 6.1479
10.0077 1.13988 -16.8122
7.47726 10.0415 11.7891
12.5679 1.25053 -2.99497
-2.67844 12.7279 2.48832
14.7104 -3.37503 -10.2499
-2.8641 -3.35488 10.5956
7.98849 6.56055 6.12427
-11.0003 5.41376 4.72496
4.59015 8.72532 -10.9722
-9.25906 -11.4239 1.43576
12.4647 -0.759871 -3.47839
-15.943 -9.31323 9.98205
3.91953 14.7878 12.9196
-10.2537 -10.1424 0.373488
6.79143 -11.4096 -14.3808
-0.782308 14.8659 11.0886
1.4093 -10.8831 -11.1481
10.2678 -8.08155 -14.2817
8.76519 8.27813 2.63807
4.24379 9.43236 12.3545
14.4116 -2.01731 -7.30494
-4.37896 -9.21225 7.89784
3.62294 17.3856 12.3208
11.2636 -6.3358 -3.88533
10.8088 10.1875 4.30938
-15.3449 -5.78254 0.82409
8.85237 -7.81306 -16.1721
1.02262 0.771222 0.916407
-9.98485 2.26962 -1.28756
-0.157086 -6.36041 -15.5539
-4.24317 13.4017 6.45504
-4.77254 4.76568 4.01131
6.62032 7.42978 -13.8012
-7.3392 5.42356 4.56628
3.56648 -4.66878 -18.4828
3.16843 5.75585 8.73497
5.54994 -7.99532 -17.6509
7.54856 4.7782 -16.0037
-9.10791 4.22556 0.262285
-7.73908 5.34345 3.16695
-2.18025 8.73814 9.12607
1.61249 0.985538 -16.1156
-7.98173 -1.38226 14.6084
-4.4418 3.43697 1.6092
6.95438 17.9349 2.67033
2.20862 -11.0935 -10.4976
6.37461 -10.3227 -7.44994
-1.27287 4.78357 -10.9551
7.07126 8.19059 10.8254
1.92043 9.20669 11.3639
-7.41185 3.75801 10.408
12.4766 -6.58806 -4.78948
-2.63495 -3.22862 -5.45682
8.14064 0.68922 0.171929
7.39223 13.8633 11.8453
2.12728 -7.97758 -5.18035
12.9372 -6.09621 -11.3048
4.68894 17.2457 1.63646
4.19349 19.6887 9.07477
1.98158 20.1248 4.41576
-2.38367 2.8369 6.81517
1.41064 6.44331 -2.71623
-0.223251 15.1876 0.955657
-2.23658 -4.50033 -5.3242
-17.9296 -5.98424 8.91416
-12.1146 4.33038 8.96279
-12.0692 -3.05342 -1.44281
13.83 1.48323 -12.3763
-2.40573 -0.0492546 -3.78908
8.86321 10.6064 1.72352
-6.58411 -7.98836 0.411081
11.1777 -7.2771 -14.7076
-14.6434 -12.5701 4.87896
-11.0828 -0.10525 -1.25476
-12.4215 3.42685 -0.356549
14.7866 1.59318 -9.55605
4.23437 19.4841 3.85119
-1.24018 -1.17428 -0.158916
9.20435 8.66982 -11.6564
14.6024 -2.46493 -8.28962
13.9534 2.88014 -7.20589
-9.27428 -8.69331 -0.147943
9.03924 8.43434 8.48867
8.09628 12.9334 0.829692
7.40953 14.0487 0.893501
8.6217 6.04206 -2.88339
-1.87518 1.99348 7.57663
-5.21303 -9.60951 3.6599
-3.68761 15.5977 7.30816
-14.8547 -2.68005 -0.825619
4.85947 -9.32136 -16.8558
7.34068 -4.85249 -1.33904
0.846368 7.85787 -10.8586
12.4222 -0.364146 -15.5676
11.9025 0.597834 -15.8322
-17.2918 -9.51081 4.77704
13.5586 1.11802 -5.36979
7.8324 -8.38315 -16.4357
-0.397597 12.3689 11.7979
-0.530212 19.07 5.23012
6.38087 12.537 -0.465968
13.514 -5.61151 -5.65819
9.1991 7.81096 -12.7409
7.00387 -8.14369 -4.40548
-2.35235 -0.748212 -2.53775
1.3139 15.72 0.736219
1.4642 3.61921 0.183083
-10.6627 -13.2 4.44521
0.0510286 18.745 8.15343
0.614788 13.5294 11.9739
13.2619 -6.36744 -6.81934
1.05384 8.5466 -9.88497
14.1736 0.252065 -12.9529
5.37498 15.6451 0.205791
-16.455 -2.35332 2.56883
3.34798 8.96213 -5.55342
11.9207 -7.64009 -8.04076
-0.835353 3.44915 -12.6708
4.17176 -2.7054 -18.6329
-18.4943 -6.55002 6.05823
5.38723 -5.85788 -18.6681
11.7559 4.22841 -3.57237
0.209698 -4.15568 -1.45266
-0.289507 8.21049 2.38295
7.73154 3.28713 -16.1924
-14.2697 -7.34138 12.3559
10.27 8.24158 -8.26997
-3.22041 -0.195231 -7.72667
0.0720316 17.7076 9.20716
7.76453 18.7391 5.12732
-0.976156 7.57097 -6.67479
8.64335 2.07448 0.0500073
-1.6455 -0.406017 9.45919
-4.74979 -4.82591 12.4437
2.47803 11.1812 -0.255759
8.42229 -9.37236 -6.96021
-1.14261 -8.74288 -11.5147
5.67729 9.08006 -5.27146
3.39581 5.05729 7.6444
10.9889 13.6339 6.64373
8.94256 18.0939 4.31587
12.9377 -0.380515 -14.631
-1.66189 11.7451 1.88054
-17.2157 -9.05726 3.37041
5.60819 5.76465 7.85299
-2.08812 -2.37208 2.45804
-1.41612 13.3295 1.62257
-4.54117 -9.69595 6.25525
5.2475 8.90142 12.226
5.2179 0.649116 -18.0164
-1.22996 -0.858707 8.56527
2.1186 16.4103 0.767197
13.016 4.27776 -5.73413
4.84262 5.12735 7.5346
6.55978 -10.6027 -9.40364
-10.0735 5.70132 5.10118
-14.2815 -11.1264 2.05497
-5.65633 4.95186 2.89988
-5.14473 -8.22586 11.4279
7.01587 -1.58374 0.0865842
3.26729 8.24956 -11.3705
-1.41646 -4.77464 -3.85649
-1.83165 17.1329 5.45449
8.03733 7.96963 9.53986
5.06333 13.1166 12.9626
11.7169 4.14909 -13.7158
-16.4675 -5.32302 11.4052
-2.43492 -2.40759 10.3824
-4.03776 -6.48268 9.65161
1.19223 6.84008 3.18025
-3.14406 -3.5347 -8.92964
9.29861 -9.37208 -14.5634
5.43269 18.2232 10.9835
10.2814 13.4958 3.29478
-15.5997 -5.92804 11.4976
-18.1389 -6.09645 4.59174
0.297236 17.1843 1.76323
-11.0323 -7.62062 -0.70069
-7.65128 -12.0778 10.551
0.356911 5.72866 -2.51893
3.52633 -5.57048 -2.30274
-3.06986 -3.73476 2.14262
-7.70057 -11.9741 3.35539
-1.77598 6.82642 -9.13802
-0.0571256 -1.03839 0.870423
-12.418 1.02376 12.2956
9.55558 8.56785 -7.49393
-0.588713 17.7409 7.94114
8.809 14.0799 10.0574
9.91252 12.232 8.99612
7.89188 8.59433 1.25157
-3.3732 -5.39259 9.36736
2.88098 5.61546 -1.01692
3.8201 6.42469 2.27646
1.37739 5.6833 -1.22569
7.27931 12.0374 0.0778268
[...]
<PointData Vectors="Normals">
<DataArray type="Float32" Name="Normals" NumberOfComponents="3" format="ascii">
0.245527 -0.541198 -0.804252
0.585122 -0.809751 -0.0440019
0.262453 0.964611 0.0253968
0.00198543 -0.159418 0.987209
0.146149 -0.263436 0.953542
0.32818 0.753059 0.570263
-0.871249 0.0705803 -0.485741
0.673554 -0.117379 0.729759
0.589177 0.480479 0.649623
-0.936638 0.158434 -0.312423
-0.0427199 0.997772 -0.0512473
0.389938 0.0252951 -0.920494
0.521974 -0.669172 -0.528915
0.432781 -0.847619 0.306991
-0.430973 0.891474 -0.13977
-0.790149 -0.584856 -0.183323
-0.280974 -0.781696 -0.556781
0.793252 -0.177002 0.582599
-0.733575 -0.633325 -0.246512
-0.985756 0.138862 0.0948814
-0.768104 0.453512 -0.452043
0.6492 0.0164256 0.760441
-0.712422 -0.679846 0.173964
-0.191477 0.664625 -0.722226
0.398335 -0.840944 0.366255
0.364002 -0.930832 -0.0324657
0.662374 -0.313607 -0.680376
-0.251746 0.965231 -0.0703796
0.83659 -0.342032 -0.427938
-0.725595 -0.167559 0.66741
-0.861052 -0.347273 -0.371471
-0.738115 -0.632322 0.235277
0.707307 -0.662109 0.247646
-0.734758 -0.327147 -0.594226
-0.427516 -0.307787 0.849999
0.881981 -0.0873338 -0.463122
0.807906 -0.180556 0.56097
-0.992377 0.0523434 0.111573
0.0379581 -0.999105 -0.0186701
-0.0065135 0.861888 0.507057
-0.875202 0.273199 0.39923
-0.665774 0.372901 0.646289
-0.199291 0.547436 0.812771
0.618402 0.339377 0.708803
-0.816848 -0.375532 0.437875
-0.608829 0.554224 -0.567594
0.775106 0.614866 0.145432
0.48412 -0.307393 0.81923
-0.169131 0.559219 -0.811584
-0.487055 0.769698 0.412725
0.421167 0.818686 0.390347
0.489213 -0.871476 -0.0346536
0.627445 -0.196133 0.753555
0.369535 -0.267045 0.890018
0.341746 -0.824267 0.451435
-0.148075 0.961923 0.229735
-0.974723 -0.171812 -0.142814
-0.899407 0.395846 0.185397
-0.595812 -0.496467 0.631292
0.464885 -0.228829 -0.855289
-0.840875 -0.442129 0.312172
-0.154882 0.788338 0.595429
-0.975556 -0.101452 0.194929
-0.867098 -0.480219 0.132402
0.399853 0.81892 -0.411688
-0.314744 -0.0712925 -0.946495
0.569887 0.559336 0.601973
-0.324314 0.89201 0.314863
-0.668699 -0.677353 0.306651
0.884755 -0.466057 1.46523e-05
0.632712 -0.774386 -0.0010394
0.705258 0.549929 -0.447425
0.0352182 -0.880215 0.473266
0.00494385 -0.883776 0.467883
-0.271395 0.786 0.555471
-0.682866 0.0457432 -0.72911
0.0453973 -0.998537 0.0293894
0.263716 0.95636 0.125819
-0.186924 -0.14233 0.972009
0.223437 -0.189757 0.956069
-0.0628918 -0.00330457 0.998015
0.898051 -0.399877 0.183309
0.472992 0.717741 0.511006
-0.176561 -0.91645 -0.35909
0.172165 -0.959523 -0.222877
0.847482 -0.0396243 -0.529343
0.578643 0.501791 -0.642945
0.52205 -0.210007 -0.826656
-0.943817 -0.290429 0.157672
-0.465624 -0.425534 -0.775961
-0.214609 0.743957 0.632828
-0.9481 0.150331 -0.280193
-0.306363 0.0809948 0.948463
0.0475753 -0.935159 -0.351018
-0.386604 -0.337419 0.858304
0.237205 -0.0173075 -0.971306
0.843538 -0.529466 0.0900485
-0.115905 -0.383374 0.916292
0.312644 0.00681358 -0.949846
0.0601785 -0.208115 0.976251
0.79966 -0.0281716 -0.599791
-0.817424 -0.0616242 -0.572731
-0.791827 -0.347006 0.502591
0.80353 -0.53996 -0.250566
-0.671156 0.74052 0.0343512
-0.602826 0.708081 0.367724
-0.715903 0.444634 -0.538316
-0.317881 -0.400315 -0.859476
0.504136 -0.863624 -0.000564227
-0.981706 0.177672 0.0684551
0.237398 0.873288 0.425454
0.138496 0.989753 0.0347468
0.262834 -0.0552877 -0.963256
0.917112 0.284567 0.279154
-0.606935 0.109655 -0.787151
-0.292412 0.221029 -0.930398
-0.634808 -0.767162 -0.0920911
-0.834471 0.0588479 -0.547901
-0.616327 0.774296 -0.14355
0.303083 0.195687 -0.932656
0.613184 0.153178 0.774946
0.9871 -0.0706348 -0.143683
-0.891955 0.352862 -0.282674
-0.143579 0.69453 0.704992
0.732601 0.0155003 -0.680481
0.0766013 -0.317829 0.945049
-0.291143 -0.428864 0.855167
-0.53835 -0.6516 0.534413
0.502664 -0.820463 0.272339
-0.966558 0.00128798 0.256444
0.480012 -0.259039 0.838145
-0.663312 0.0933305 0.7425
-0.0471045 -0.364301 -0.930089
-0.626055 0.528565 0.573301
-0.487012 -0.842098 -0.231711
-0.063821 -0.0488575 0.996765
0.887632 -0.0545514 0.457312
-0.328131 -0.452678 0.829103
-0.296855 -0.186915 -0.936451
-0.510933 -0.590966 -0.624265
-0.795119 -0.403322 0.452899
-0.284857 0.389666 0.875795
0.38304 0.904249 0.188715
0.285355 0.835327 0.469895
-0.0837086 -0.573345 0.815027
0.479347 0.835604 0.268314
0.486702 0.867862 0.0996834
0.292017 -0.280882 -0.914238
-0.179481 -0.81859 0.545616
-0.529644 0.759526 -0.37762
-0.159207 -0.509551 0.845583
0.950781 -0.277368 0.138138
0.413652 0.440841 -0.796587
-0.350603 -0.782484 0.514583
-0.51041 0.841903 -0.175159
-0.270357 -0.535172 0.800311
0.798407 0.579465 -0.163603
-0.962673 -0.060996 0.263703
-0.505689 -0.523464 0.685757
0.841366 0.0403289 -0.538959
0.220075 0.931626 -0.289206
0.862395 -0.427177 0.271651
0.787552 -0.0835105 0.610564
0.855538 -0.472439 -0.211793
-0.25633 -0.0983725 -0.961571
0.617639 0.786454 0.00352323
-0.464479 -0.705058 0.535866
-0.302329 0.206516 -0.930563
-0.333808 -0.789642 -0.514818
-0.302397 -0.596607 0.743381
0.844302 -0.490431 -0.215943
0.867932 -0.496622 0.00778157
0.490912 0.858804 0.146493
0.874931 -0.483754 0.0218472
0.862924 -0.21665 0.456537
-0.89444 -0.128622 0.428291
0.933162 0.0023957 -0.359448
0.257346 -0.926172 0.27564
0.25901 0.323788 -0.909986
-0.950606 -0.303914 -0.0631194
-0.321912 -0.593662 0.737522
-0.831112 0.524438 -0.184981
0.752869 0.607151 -0.254078
-0.56764 -0.806643 -0.164653
0.848049 0.4633 -0.257226
0.419941 0.607297 -0.674418
-0.870281 0.424465 -0.249881
0.272605 0.276283 -0.921604
0.630966 -0.150925 0.760988
0.736207 0.0848486 0.671416
-0.709996 0.0126176 -0.704092
0.943637 -0.328306 -0.042
0.885614 -0.330438 0.326341
0.626229 -0.760859 0.17009
-0.304385 0.943291 -0.132481
-0.162578 0.827237 -0.537817
0.217122 -0.539124 -0.813759
0.731859 -0.142385 0.666415
-0.694574 -0.264861 0.668891
-0.0994831 0.0852907 0.991377
0.0834026 -0.641467 -0.762604
0.361709 -0.82417 -0.435787
-0.590859 0.340018 0.731624
-0.453944 -0.875755 0.164281
0.588455 -0.601741 -0.540027
0.738801 -0.359528 -0.570011
-0.130286 -0.410064 0.902703
0.9354 -0.0514055 0.349835
0.815988 -0.49984 0.290385
-0.042549 0.586491 0.808837
0.208909 -0.667365 0.714829
0.959933 -0.0317529 -0.278425
-0.540371 -0.0508397 -0.83989
0.562603 -0.473745 -0.677527
0.109705 0.052221 0.992591
0.19671 0.33781 -0.920429
-0.707355 -0.128153 -0.695144
-0.996093 0.0846442 -0.0251843
0.32635 0.944017 -0.0482531
0.0340688 0.801957 -0.59641
0.136156 0.990038 0.0358613
-0.164712 -0.106552 -0.98057
-0.13388 -0.881785 0.452251
0.237625 -0.515561 -0.823244
0.196498 0.416096 -0.887836
0.174242 0.605811 -0.776294
0.163455 0.977167 -0.135746
-0.657317 -0.563383 0.500534
-0.41711 0.445576 -0.792137
0.032333 0.0721508 0.99687
0.449528 0.596454 -0.664957
0.315616 0.622249 -0.716375
-0.2768 -0.90688 0.317728
0.302246 -0.876464 0.374777
-0.803584 0.4262 -0.415459
0.509806 -0.600798 0.615744
-0.21792 -0.459923 0.860803
0.160338 0.830344 0.533685
0.540727 -0.708107 0.454092
-0.897544 -0.14251 0.417259
0.448156 -0.147237 0.881747
0.683792 0.0482675 0.728079
-0.481167 -0.70111 0.526235
0.92512 -0.367988 -0.0934737
0.142908 0.689042 -0.710492
0.406961 0.832317 0.37634
-0.0873115 0.93777 -0.336103
0.570553 0.784101 0.244246
-0.43209 0.707652 0.55904
-0.450356 0.25131 -0.856751
-0.840852 -0.420747 0.340498
-0.919907 -0.182592 0.347032
-0.373796 0.726966 0.576018
-0.286564 -0.0133453 -0.957968
0.873147 0.295115 -0.387971
-0.98907 -0.110801 0.0972782
0.721224 -0.165416 -0.672661
0.356025 -0.420413 -0.834565
0.53554 -0.482377 -0.693188
-0.693514 -0.716456 -0.0756916
0.00216078 0.0481878 -0.998836
-0.285572 0.773975 -0.565165
0.943049 0.278265 -0.182283
0.237196 0.875469 -0.421061
-0.603142 -0.677773 0.420529
0.369804 0.817104 -0.442252
0.983994 -0.137865 0.11291
0.87992 0.390287 0.270955
0.261244 -0.407697 -0.874948
0.745968 -0.598541 0.292029
0.690037 0.194092 -0.697264
0.638226 0.315634 -0.70217
0.422868 0.621899 0.659109
0.740084 0.605006 0.293672
0.637763 -0.691852 -0.338524
-0.770907 0.636827 -0.0124057
-0.540627 -0.0628564 -0.838911
0.22343 -0.594293 -0.77259
0.396991 -0.444791 0.802845
-0.375121 0.775 -0.508585
0.802725 0.074044 -0.591735
0.654981 0.174232 -0.735285
-0.798504 -0.584066 -0.145801
0.880086 0.15052 0.450325
0.410646 -0.432974 -0.802436
-0.327084 -0.0356953 0.944321
-0.601092 0.798869 0.0222818
0.389035 0.0628394 -0.919077
0.870461 -0.364902 0.33037
0.347335 0.681415 -0.64423
0.331613 -0.761415 0.557027
-0.962854 -0.159169 0.218125
-0.258589 0.307638 -0.915691
-0.168579 0.555341 0.814357
0.0946781 -0.978533 -0.183058
-0.778939 0.506646 0.369545
-0.323763 0.0827184 0.942515
0.750383 -0.641639 0.158823
-0.276915 0.882956 -0.379086
0.840379 0.232744 -0.489482
0.252557 0.492127 -0.833082
-0.957861 0.0957886 -0.27079
-0.154215 0.952498 0.262612
0.606313 -0.79022 0.0890919
-0.776964 0.300645 -0.553117
-0.309468 0.250732 -0.917258
-0.986896 0.0267148 -0.159128
-0.0943328 -0.226508 -0.96943
0.674246 0.434185 0.59739
-0.309585 -0.441054 0.842395
-0.576939 -0.503439 -0.643188
0.244692 0.223705 -0.943442
-0.465746 -0.460483 0.75567
0.707916 0.684142 0.17551
-0.992943 0.112845 0.0364711
-0.659408 0.548326 0.514314
0.3039 0.952676 0.00725414
-0.756127 0.630528 0.175236
0.538612 0.228175 0.811069
0.892861 0.114587 0.435511
0.759207 -0.21588 0.614003
-0.23409 -0.144659 -0.961393
0.438674 -0.834279 0.333981
-0.892712 -0.44197 0.0879132
0.157399 0.892704 0.422262
-0.149876 -0.966286 0.209353
0.946515 0.262421 0.187735
0.511976 0.803275 -0.304351
0.844597 0.00803687 -0.535342
-0.586279 -0.169597 -0.792158
-0.749458 -0.519995 -0.409778
0.304429 -0.850377 0.429165
0.685013 -0.462837 -0.562618
-0.561403 0.055877 -0.825654
0.872653 -0.486477 -0.0426321
0.085711 -0.458563 0.884519
0.172375 0.180325 -0.968385
0.968697 -0.032213 0.246146
-0.24673 0.498009 -0.831331
0.829351 0.39527 0.39489
0.163434 -0.948754 0.270472
0.378109 -0.916947 0.127442
-0.0484707 0.998042 -0.0395348
-0.248061 -0.687258 -0.682746
0.309291 0.90287 -0.298606
0.737835 -0.605624 0.298025
0.25349 -0.294186 0.921519
-0.229361 0.890046 -0.393968
-0.79893 -0.453159 0.395421
-0.846717 0.532041 0.00154256
0.646401 -0.642385 0.411712
0.200125 -0.24009 0.949898
0.777394 0.466289 -0.422176
-0.526939 -0.156815 0.835311
0.859181 -0.333792 0.387803
0.881707 -0.37877 0.281295
-0.485501 -0.785418 -0.383936
-0.950825 -0.23471 -0.202096
0.612273 -0.60968 -0.5034
0.0821981 0.757231 0.647954
0.86603 0.015016 -0.499767
-0.57637 -0.168174 0.799697
-0.953137 -0.0182515 -0.301988
-0.355763 0.423949 -0.832887
-0.0777107 -0.326015 -0.942165
0.55399 -0.632269 0.5416
-0.497191 0.607677 0.619298
-0.192446 -0.581109 0.790745
0.647468 -0.383463 -0.65859
0.578283 -0.671969 -0.462652
-0.872335 0.387762 -0.297778
0.0787742 -0.839522 0.537585
-0.411451 0.630333 0.658323
0.481815 0.857765 0.179146
-0.733965 0.568522 0.371588
0.789659 0.0423963 0.612079
0.797224 -0.0650837 0.600165
0.657166 -0.243141 -0.713453
0.856317 -0.457594 0.239434
-0.178955 0.571085 0.801147
-0.341873 -0.662296 -0.666699
-0.394278 0.648058 0.651587
0.569358 -0.0117924 -0.822005
-0.15644 -0.0391125 -0.986913
0.853584 -0.455968 0.251966
-0.426984 0.348827 -0.834269
0.977892 -0.20588 0.0366051
0.935846 -0.210738 -0.282455
-0.066111 0.795533 -0.602293
0.852235 0.147105 0.502052
0.202055 0.0150334 -0.979259
-0.905436 -0.0038815 -0.424466
0.0147594 0.156247 -0.987608
0.0716335 0.976256 0.204435
-0.84736 -0.504111 0.166893
-0.919316 -0.00165254 -0.393517
-0.391403 0.533829 0.749553
-0.960611 0.275991 0.032505
0.770131 -0.0478831 -0.636087
-0.565869 0.319721 0.759981
0.536608 0.753468 0.379917
0.0556949 -0.74262 0.667393
-0.21714 -0.590132 -0.777556
-0.959791 0.1188 -0.254337
-0.416346 0.524098 0.742952
-0.23571 -0.514039 -0.824746
0.118762 0.68322 -0.72049
0.103509 0.396564 -0.912153
-0.775874 0.159399 -0.610419
-0.60496 0.743785 0.284266
0.725559 0.616409 -0.305947
-0.149672 0.771069 -0.618911
-0.186049 0.896961 0.401057
0.466907 -0.717879 0.516379
-0.759312 0.253126 -0.599476
-0.62905 0.343369 -0.697419
0.503112 -0.177353 -0.845827
0.208679 -0.81342 0.542956
-0.738691 0.629039 -0.24217
-0.982814 0.0273043 0.182567
-0.893846 -0.146581 -0.423736
-0.179877 -0.48569 0.855424
-0.911899 0.133423 -0.388123
0.198193 0.979611 0.0328947
-0.714205 -0.280983 -0.641062
-0.920477 0.0663344 -0.385127
0.584543 -0.799945 -0.135635
-0.502043 -0.799218 0.330458
0.510081 -0.699135 -0.501026
0.0786558 -0.361157 0.929182
0.0485152 -0.618199 0.784523
-0.321901 -0.110987 0.940245
-0.932579 0.226113 -0.281372
-0.867431 0.208329 -0.451844
-0.272964 0.154869 0.949477
0.220411 0.859944 -0.460342
-0.656894 0.087921 0.748839
0.361199 0.925335 0.115282
0.403847 -0.727187 0.555074
0.450927 0.87711 0.165356
-0.138268 0.756401 0.639327
-0.00612626 0.662164 -0.749334
-0.184505 -0.184219 0.965412
0.554081 -0.0349159 0.83173
-0.58426 -0.405666 0.702905
-0.624513 -0.778799 -0.0587926
0.498653 -0.362314 0.787448
-0.0397902 0.849555 -0.525998
-0.364968 0.548166 0.752538
0.167004 0.581881 -0.795943
0.243245 -0.0373807 -0.969244
-0.542428 -0.839974 -0.0147049
0.394001 0.912475 0.11024
0.139466 -0.705824 0.694523
-0.587279 -0.797417 -0.138674
0.961438 -0.236991 0.13954
-0.857649 -0.51063 0.0607839
0.646788 -0.253721 -0.719229
0.271433 0.865208 -0.421591
0.874683 -0.0717734 0.479352
-0.62099 -0.62312 -0.475492
0.229952 -0.707124 0.668654
-0.0795129 -0.494202 -0.865703
-0.253167 -0.840195 0.479562
-0.910663 0.412193 -0.0281163
-0.420866 0.793219 0.440086
0.697678 -0.0277885 0.715873
-0.150978 -0.60446 0.782198
0.116576 0.969414 0.215979
-0.843048 -0.518528 0.142826
0.709371 0.675832 0.200112
-0.0560748 -0.657799 0.751103
-0.91396 -0.0323184 -0.404515
0.893564 0.309584 0.325118
-0.275352 0.791095 -0.546215
-0.270032 -0.958565 -0.090753
-0.560713 0.0342146 0.827303
-0.873063 0.487471 0.0115546
0.264255 -0.0135328 0.964358
-0.727836 -0.68228 0.068913
0.272347 0.958435 0.0850294
0.618969 0.777346 0.112293
0.425521 -0.867278 0.25838
0.346619 0.161596 0.923982
-0.728793 0.569073 -0.380811
0.768222 0.327997 0.549775
-0.863223 0.356087 -0.357837
0.512535 0.742738 -0.430869
0.692286 0.15127 0.70559
0.872732 0.180642 0.45355
0.803469 0.353187 -0.479267
-0.416441 -0.799059 -0.433684
0.317672 -0.190611 -0.928844
0.964704 0.178949 0.193191
0.498448 -0.177945 -0.848461
-0.183348 -0.457267 0.870224
0.823136 0.297333 0.483777
0.903356 -0.0168008 0.428563
-0.333042 0.0641067 0.94073
-0.54064 -0.351597 -0.764256
-0.903476 -0.11548 0.41279
-0.690071 0.493006 -0.529855
-0.741243 -0.589014 0.321903
0.529012 0.835721 0.147366
0.66767 -0.557887 -0.49293
0.795667 -0.0274262 0.605113
-0.893064 -0.0936892 -0.440067
0.351298 0.628847 0.693644
-0.799821 0.359862 -0.480402
0.881518 0.231946 0.411251
-0.0235238 -0.485167 0.874105
-0.346516 -0.319933 -0.881799
-0.0932176 0.5953 -0.798078
-0.459171 -0.54295 0.703113
0.849418 0.338946 0.404481
0.409464 -0.367213 0.835161
0.786533 -0.558731 0.263032
-0.228449 -0.49662 -0.837365
0.80571 -0.110642 0.581885
-0.903456 0.426691 0.0412604
-0.332718 -0.880941 -0.336514
-0.353639 0.801816 0.481696
0.553275 0.0825394 0.828899
-0.681105 -0.731776 -0.024479
-0.593617 0.804201 -0.029658
-0.284283 0.0276929 0.95834
0.410276 -0.310272 -0.857558
0.0987229 -0.84251 -0.529558
-0.765729 0.635889 -0.0964538
0.891766 -0.0653458 -0.447753
0.576949 0.685164 -0.444611
0.185888 0.245344 0.951447
-0.595206 0.734283 0.326432
0.822038 -0.568016 -0.0401459
0.0816869 0.802537 -0.590983
0.403254 0.395353 -0.825277
-0.93427 -0.115987 -0.337175
0.0865899 0.873833 0.478453
0.806388 -0.589394 -0.0485206
0.503979 0.790803 0.347328
-0.686478 0.426363 0.589035
-0.91615 -0.0740241 -0.393941
0.269287 -0.0146591 -0.962948
0.904843 -0.424926 0.0264177
0.898273 -0.335512 0.283792
-0.867702 0.276947 0.412787
0.824277 -0.554826 -0.112848
-0.356523 -0.645392 0.675545
-0.23795 -0.401817 0.884264
0.109187 0.850882 -0.513885
-0.479869 0.385786 -0.787969
0.169324 -0.411041 -0.895754
0.631353 0.675508 0.380896
0.579372 -0.375782 -0.723267
-0.213671 0.141215 -0.966645
-0.595027 0.39053 0.702445
-0.420405 0.897985 -0.129933
-0.926547 0.275867 -0.255749
0.661805 -0.000606852 0.749676
0.362462 -0.288076 0.88636
0.404928 0.770191 0.492786
0.896211 0.419063 0.145572
-0.466113 0.690217 0.553479
-0.705466 -0.270528 -0.655082
-0.844396 0.161846 -0.510686
-0.590047 -0.747669 -0.30469
0.251498 0.0529449 -0.966409
0.980189 -0.036019 0.19476
0.652459 -0.587475 -0.478718
0.207282 -0.245272 0.947035
0.567384 0.618823 -0.543261
-0.942757 0.311238 0.11975
0.979638 0.194941 0.0480308
-0.954682 -0.0999132 0.280355
0.904114 0.427134 0.0116084
-0.859658 0.469236 0.202006
-0.855524 0.124297 0.502622
0.825698 -0.476823 -0.301435
0.599536 -0.211616 0.771865
0.87232 0.263777 0.411679
0.268988 -0.851763 0.449606
-0.613311 -0.296624 -0.732027
0.560595 -0.820723 0.110213
-0.211754 0.966684 -0.143811
0.769672 0.62688 0.120945
0.776949 -0.355358 0.519684
-0.878911 0.379541 0.288902
0.969544 -0.214569 -0.118088
0.317159 -0.169452 -0.933111
0.663308 -0.225158 0.713671
0.193458 0.90517 0.378474
-0.126367 0.514138 -0.848348
0.520054 -0.589257 0.61832
0.372978 -0.51112 0.774367
-0.21446 -0.226243 0.950169
0.793058 -0.519981 0.317299
-0.2728 -0.685928 -0.674598
-0.241603 -0.407345 -0.880737
0.2406 0.645099 -0.72523
-0.634758 0.606225 -0.479138
0.411203 -0.338722 -0.846274
0.104166 -0.973114 0.205423
-0.629511 0.53814 -0.560465
-0.721176 0.62183 0.305339
-0.591427 -0.788721 0.167732
-0.389352 0.14409 0.909749
0.247884 -0.46984 0.847233
-0.0171066 0.980525 0.195646
-0.880314 0.0947272 -0.464837
0.0528317 0.420081 -0.905947
0.746695 -0.650847 -0.137278
-0.729853 0.608204 0.312096
-0.652976 0.46288 -0.59947
0.0549201 0.617702 -0.784492
0.765729 0.642746 0.0231505
0.691387 -0.716409 0.0934972
0.362791 0.735717 0.57193
0.87081 -0.487847 -0.0607883
0.3193 0.845684 0.427629
0.412442 -0.0894373 0.906583
-0.254396 0.964511 -0.0707191
0.961626 -0.274193 0.00963102
0.0858862 0.396136 -0.914166
0.16216 0.0714182 -0.984177
-0.976689 -0.0440163 -0.2101
-0.0990312 0.994638 0.0298073
0.902656 -0.331634 0.274284
0.479396 0.867817 0.130664
-0.221378 -0.766776 -0.602534
-0.125696 0.868647 0.479221
0.959786 0.277418 0.0430116
-0.640409 0.417726 0.644501
0.663966 -0.68407 0.30199
-0.888627 0.166361 0.427395
0.42275 -0.305546 -0.853185
-0.667519 -0.659351 -0.345939
-0.682125 -0.248575 -0.687689
0.911745 -0.404522 0.071303
-0.365218 0.504525 -0.782349
-0.305261 -0.577772 0.756964
0.835021 0.173379 -0.522187
0.863321 -0.495808 0.0940832
-0.681319 -0.430351 -0.592117
0.717847 0.486236 0.498268
-0.462652 0.881455 -0.0948193
-0.180028 -0.295346 -0.938275
-0.712225 0.129067 0.689983
-0.917672 -0.291645 -0.269854
0.0867165 0.208059 0.974265
-0.338116 -0.24172 0.909532
-0.517523 0.849543 0.102208
-0.342618 -0.65945 0.669132
-0.767426 -0.433707 -0.472182
0.0511116 -0.925159 -0.376123
0.582719 0.717269 0.382051
-0.552687 -0.330096 0.765228
-0.794263 0.431323 0.427911
-0.832135 -0.548596 -0.0811995
-0.315905 0.702302 0.637947
-0.863037 0.160603 -0.478931
0.907534 -0.292883 0.301001
-0.282475 -0.524003 -0.80351
0.0122151 0.999817 0.0147067
-0.017628 -0.805414 0.59245
0.990469 0.017946 0.136564
0.22393 0.734215 -0.640924
-0.879599 0.472608 0.0542895
0.47714 0.00385138 0.878819
-0.448467 -0.792831 0.41267
-0.78278 0.477262 0.399346
-0.692849 -0.0953157 -0.714755
-0.227264 -0.04796 -0.972651
-0.221888 0.285317 -0.932395
0.235249 -0.96363 0.126785
-0.0317107 -0.644829 -0.763668
-0.60021 0.655186 0.45878
0.140082 0.675218 0.724195
0.879644 0.0193343 0.475239
-0.212541 -0.064056 -0.97505
0.648845 0.726724 0.225549
-0.959112 0.00840284 0.282902
-0.484076 0.767172 -0.420853
0.808536 -0.349343 0.473529
0.261179 -0.647018 0.716347
-0.967276 -0.0652577 0.245192
0.0210028 0.348755 -0.936979
0.527391 0.617423 0.58365
0.97165 -0.230677 0.0518141
-0.0712376 -0.310841 0.947788
-0.916788 0.0782558 -0.391631
0.329529 0.10769 -0.937984
0.811256 -0.433461 0.392398
0.639315 -0.21475 0.738349
0.967977 -0.176873 0.178146
0.199466 0.841394 0.502265
-0.765546 -0.565684 0.306497
-0.443265 0.109659 -0.889658
-0.33453 0.819358 -0.465555